2
Timestep 0
P1 0.000000 0.000000 0.000000
P2 0.000000 0.000000 0.000000
2
Timestep 1
P1 -0.038572 0.000000 0.000000
P2 0.038572 0.000000 0.000000
2
Timestep 2
P1 -0.074452 0.000000 0.000000
P2 0.074452 0.000000 0.000000
2
Timestep 3
P1 -0.107459 0.000000 0.000000
P2 0.107459 0.000000 0.000000
2
Timestep 4
P1 -0.137430 0.000000 0.000000
P2 0.137430 0.000000 0.000000
2
Timestep 5
P1 -0.164212 0.000000 0.000000
P2 0.164212 0.000000 0.000000
2
Timestep 6
P1 -0.187674 0.000000 0.000000
P2 0.187674 0.000000 0.000000
2
Timestep 7
P1 -0.207698 0.000000 0.000000
P2 0.207698 0.000000 0.000000
2
Timestep 8
P1 -0.224183 0.000000 0.000000
P2 0.224183 0.000000 0.000000
2
Timestep 9
P1 -0.237047 0.000000 0.000000
P2 0.237047 0.000000 0.000000
2
Timestep 10
P1 -0.246226 0.000000 0.000000
P2 0.246226 0.000000 0.000000
2
Timestep 11
P1 -0.251673 0.000000 0.000000
P2 0.251673 0.000000 0.000000
2
Timestep 12
P1 -0.253363 0.000000 0.000000
P2 0.253363 0.000000 0.000000
2
Timestep 13
P1 -0.251285 0.000000 0.000000
P2 0.251285 0.000000 0.000000
2
Timestep 14
P1 -0.245451 0.000000 0.000000
P2 0.245451 0.000000 0.000000
2
Timestep 15
P1 -0.235890 0.000000 0.000000
P2 0.235890 0.000000 0.000000
2
Timestep 16
P1 -0.222650 0.000000 0.000000
P2 0.222650 0.000000 0.000000
2
Timestep 17
P1 -0.205796 0.000000 0.000000
P2 0.205796 0.000000 0.000000
2
Timestep 18
P1 -0.185413 0.000000 0.000000
P2 0.185413 0.000000 0.000000
2
Timestep 19
P1 -0.161603 0.000000 0.000000
P2 0.161603 0.000000 0.000000
2
Timestep 20
P1 -0.134485 0.000000 0.000000
P2 0.134485 0.000000 0.000000
2
Timestep 21
P1 -0.104195 0.000000 0.000000
P2 0.104195 0.000000 0.000000
2
Timestep 22
P1 -0.070884 0.000000 0.000000
P2 0.070884 0.000000 0.000000
2
Timestep 23
P1 -0.034718 0.000000 0.000000
P2 0.034718 0.000000 0.000000
2
Timestep 24
P1 0.004121 0.000000 0.000000
P2 -0.004121 0.000000 0.000000
2
Timestep 25
P1 0.045440 0.000000 0.000000
P2 -0.045440 0.000000 0.000000
2
Timestep 26
P1 0.089032 0.000000 0.000000
P2 -0.089032 0.000000 0.000000
2
Timestep 27
P1 0.134678 0.000000 0.000000
P2 -0.134678 0.000000 0.000000
2
Timestep 28
P1 0.182151 0.000000 0.000000
P2 -0.182151 0.000000 0.000000
2
Timestep 29
P1 0.231213 0.000000 0.000000
P2 -0.231213 0.000000 0.000000
2
Timestep 30
P1 0.281619 0.000000 0.000000
P2 -0.281619 0.000000 0.000000
2
Timestep 31
P1 0.333117 0.000000 0.000000
P2 -0.333117 0.000000 0.000000
2
Timestep 32
P1 0.385450 0.000000 0.000000
P2 -0.385450 0.000000 0.000000
2
Timestep 33
P1 0.438355 0.000000 0.000000
P2 -0.438355 0.000000 0.000000
2
Timestep 34
P1 0.491568 0.000000 0.000000
P2 -0.491568 0.000000 0.000000
2
Timestep 35
P1 0.544824 0.000000 0.000000
P2 -0.544824 0.000000 0.000000
2
Timestep 36
P1 0.597856 0.000000 0.000000
P2 -0.597856 0.000000 0.000000
2
Timestep 37
P1 0.650398 0.000000 0.000000
P2 -0.650398 0.000000 0.000000
2
Timestep 38
P1 0.702188 0.000000 0.000000
P2 -0.702188 0.000000 0.000000
2
Timestep 39
P1 0.752967 0.000000 0.000000
P2 -0.752967 0.000000 0.000000
2
Timestep 40
P1 0.802482 0.000000 0.000000
P2 -0.802482 0.000000 0.000000
2
Timestep 41
P1 0.850484 0.000000 0.000000
P2 -0.850484 0.000000 0.000000
2
Timestep 42
P1 0.896733 0.000000 0.000000
P2 -0.896733 0.000000 0.000000
2
Timestep 43
P1 0.940999 0.000000 0.000000
P2 -0.940999 0.000000 0.000000
2
Timestep 44
P1 0.983060 0.000000 0.000000
P2 -0.983060 0.000000 0.000000
2
Timestep 45
P1 1.022706 0.000000 0.000000
P2 -1.022706 0.000000 0.000000
2
Timestep 46
P1 1.059738 0.000000 0.000000
P2 -1.059738 0.000000 0.000000
2
Timestep 47
P1 1.093971 0.000000 0.000000
P2 -1.093971 0.000000 0.000000
2
Timestep 48
P1 1.125235 0.000000 0.000000
P2 -1.125235 0.000000 0.000000
2
Timestep 49
P1 1.153372 0.000000 0.000000
P2 -1.153372 0.000000 0.000000
2
Timestep 50
P1 1.178243 0.000000 0.000000
P2 -1.178243 0.000000 0.000000
2
Timestep 51
P1 1.199722 0.000000 0.000000
P2 -1.199722 0.000000 0.000000
2
Timestep 52
P1 1.217703 0.000000 0.000000
P2 -1.217703 0.000000 0.000000
2
Timestep 53
P1 1.232095 0.000000 0.000000
P2 -1.232095 0.000000 0.000000
2
Timestep 54
P1 1.242827 0.000000 0.000000
P2 -1.242827 0.000000 0.000000
2
Timestep 55
P1 1.249844 0.000000 0.000000
P2 -1.249844 0.000000 0.000000
2
Timestep 56
P1 1.253113 0.000000 0.000000
P2 -1.253113 0.000000 0.000000
2
Timestep 57
P1 1.252615 0.000000 0.000000
P2 -1.252615 0.000000 0.000000
2
Timestep 58
P1 1.248355 0.000000 0.000000
P2 -1.248355 0.000000 0.000000
2
Timestep 59
P1 1.240353 0.000000 0.000000
P2 -1.240353 0.000000 0.000000
2
Timestep 60
P1 1.228649 0.000000 0.000000
P2 -1.228649 0.000000 0.000000
2
Timestep 61
P1 1.213302 0.000000 0.000000
P2 -1.213302 0.000000 0.000000
2
Timestep 62
P1 1.194389 0.000000 0.000000
P2 -1.194389 0.000000 0.000000
2
Timestep 63
P1 1.172003 0.000000 0.000000
P2 -1.172003 0.000000 0.000000
2
Timestep 64
P1 1.146258 0.000000 0.000000
P2 -1.146258 0.000000 0.000000
2
Timestep 65
P1 1.117281 0.000000 0.000000
P2 -1.117281 0.000000 0.000000
2
Timestep 66
P1 1.085217 0.000000 0.000000
P2 -1.085217 0.000000 0.000000
2
Timestep 67
P1 1.050228 0.000000 0.000000
P2 -1.050228 0.000000 0.000000
2
Timestep 68
P1 1.012488 0.000000 0.000000
P2 -1.012488 0.000000 0.000000
2
Timestep 69
P1 0.972185 0.000000 0.000000
P2 -0.972185 0.000000 0.000000
2
Timestep 70
P1 0.929521 0.000000 0.000000
P2 -0.929521 0.000000 0.000000
2
Timestep 71
P1 0.884710 0.000000 0.000000
P2 -0.884710 0.000000 0.000000
2
Timestep 72
P1 0.837975 0.000000 0.000000
P2 -0.837975 0.000000 0.000000
2
Timestep 73
P1 0.789550 0.000000 0.000000
P2 -0.789550 0.000000 0.000000
2
Timestep 74
P1 0.739677 0.000000 0.000000
P2 -0.739677 0.000000 0.000000
2
Timestep 75
P1 0.688606 0.000000 0.000000
P2 -0.688606 0.000000 0.000000
2
Timestep 76
P1 0.636592 0.000000 0.000000
P2 -0.636592 0.000000 0.000000
2
Timestep 77
P1 0.583895 0.000000 0.000000
P2 -0.583895 0.000000 0.000000
2
Timestep 78
P1 0.530779 0.000000 0.000000
P2 -0.530779 0.000000 0.000000
2
Timestep 79
P1 0.477508 0.000000 0.000000
P2 -0.477508 0.000000 0.000000
2
Timestep 80
P1 0.424351 0.000000 0.000000
P2 -0.424351 0.000000 0.000000
2
Timestep 81
P1 0.371571 0.000000 0.000000
P2 -0.371571 0.000000 0.000000
2
Timestep 82
P1 0.319433 0.000000 0.000000
P2 -0.319433 0.000000 0.000000
2
Timestep 83
P1 0.268199 0.000000 0.000000
P2 -0.268199 0.000000 0.000000
2
Timestep 84
P1 0.218123 0.000000 0.000000
P2 -0.218123 0.000000 0.000000
2
Timestep 85
P1 0.169457 0.000000 0.000000
P2 -0.169457 0.000000 0.000000
2
Timestep 86
P1 0.122443 0.000000 0.000000
P2 -0.122443 0.000000 0.000000
2
Timestep 87
P1 0.077318 0.000000 0.000000
P2 -0.077318 0.000000 0.000000
2
Timestep 88
P1 0.034305 0.000000 0.000000
P2 -0.034305 0.000000 0.000000
2
Timestep 89
P1 -0.006379 0.000000 0.000000
P2 0.006379 0.000000 0.000000
2
Timestep 90
P1 -0.044531 0.000000 0.000000
P2 0.044531 0.000000 0.000000
2
Timestep 91
P1 -0.079960 0.000000 0.000000
P2 0.079960 0.000000 0.000000
2
Timestep 92
P1 -0.112490 0.000000 0.000000
P2 0.112490 0.000000 0.000000
2
Timestep 93
P1 -0.141957 0.000000 0.000000
P2 0.141957 0.000000 0.000000
2
Timestep 94
P1 -0.168214 0.000000 0.000000
P2 0.168214 0.000000 0.000000
2
Timestep 95
P1 -0.191130 0.000000 0.000000
P2 0.191130 0.000000 0.000000
2
Timestep 96
P1 -0.210591 0.000000 0.000000
P2 0.210591 0.000000 0.000000
2
Timestep 97
P1 -0.226498 0.000000 0.000000
P2 0.226498 0.000000 0.000000
2
Timestep 98
P1 -0.238774 0.000000 0.000000
P2 0.238774 0.000000 0.000000
2
Timestep 99
P1 -0.247355 0.000000 0.000000
P2 0.247355 0.000000 0.000000
2
Timestep 100
P1 -0.252199 0.000000 0.000000
P2 0.252199 0.000000 0.000000
2
Timestep 101
P1 -0.253283 0.000000 0.000000
P2 0.253283 0.000000 0.000000
2
Timestep 102
P1 -0.250600 0.000000 0.000000
P2 0.250600 0.000000 0.000000
2
Timestep 103
P1 -0.244164 0.000000 0.000000
P2 0.244164 0.000000 0.000000
2
Timestep 104
P1 -0.234007 0.000000 0.000000
P2 0.234007 0.000000 0.000000
2
Timestep 105
P1 -0.220180 0.000000 0.000000
P2 0.220180 0.000000 0.000000
2
Timestep 106
P1 -0.202753 0.000000 0.000000
P2 0.202753 0.000000 0.000000
2
Timestep 107
P1 -0.181811 0.000000 0.000000
P2 0.181811 0.000000 0.000000
2
Timestep 108
P1 -0.157461 0.000000 0.000000
P2 0.157461 0.000000 0.000000
2
Timestep 109
P1 -0.129823 0.000000 0.000000
P2 0.129823 0.000000 0.000000
2
Timestep 110
P1 -0.099036 0.000000 0.000000
P2 0.099036 0.000000 0.000000
2
Timestep 111
P1 -0.065254 0.000000 0.000000
P2 0.065254 0.000000 0.000000
2
Timestep 112
P1 -0.028646 0.000000 0.000000
P2 0.028646 0.000000 0.000000
2
Timestep 113
P1 0.010606 0.000000 0.000000
P2 -0.010606 0.000000 0.000000
2
Timestep 114
P1 0.052304 0.000000 0.000000
P2 -0.052304 0.000000 0.000000
2
Timestep 115
P1 0.096242 0.000000 0.000000
P2 -0.096242 0.000000 0.000000
2
Timestep 116
P1 0.142197 0.000000 0.000000
P2 -0.142197 0.000000 0.000000
2
Timestep 117
P1 0.189942 0.000000 0.000000
P2 -0.189942 0.000000 0.000000
2
Timestep 118
P1 0.239237 0.000000 0.000000
P2 -0.239237 0.000000 0.000000
2
Timestep 119
P1 0.289836 0.000000 0.000000
P2 -0.289836 0.000000 0.000000
2
Timestep 120
P1 0.341486 0.000000 0.000000
P2 -0.341486 0.000000 0.000000
2
Timestep 121
P1 0.393928 0.000000 0.000000
P2 -0.393928 0.000000 0.000000
2
Timestep 122
P1 0.446901 0.000000 0.000000
P2 -0.446901 0.000000 0.000000
2
Timestep 123
P1 0.500139 0.000000 0.000000
P2 -0.500139 0.000000 0.000000
2
Timestep 124
P1 0.553377 0.000000 0.000000
P2 -0.553377 0.000000 0.000000
2
Timestep 125
P1 0.606347 0.000000 0.000000
P2 -0.606347 0.000000 0.000000
2
Timestep 126
P1 0.658786 0.000000 0.000000
P2 -0.658786 0.000000 0.000000
2
Timestep 127
P1 0.710431 0.000000 0.000000
P2 -0.710431 0.000000 0.000000
2
Timestep 128
P1 0.761024 0.000000 0.000000
P2 -0.761024 0.000000 0.000000
2
Timestep 129
P1 0.810312 0.000000 0.000000
P2 -0.810312 0.000000 0.000000
2
Timestep 130
P1 0.858048 0.000000 0.000000
P2 -0.858048 0.000000 0.000000
2
Timestep 131
P1 0.903994 0.000000 0.000000
P2 -0.903994 0.000000 0.000000
2
Timestep 132
P1 0.947919 0.000000 0.000000
P2 -0.947919 0.000000 0.000000
2
Timestep 133
P1 0.989606 0.000000 0.000000
P2 -0.989606 0.000000 0.000000
2
Timestep 134
P1 1.028844 0.000000 0.000000
P2 -1.028844 0.000000 0.000000
2
Timestep 135
P1 1.065438 0.000000 0.000000
P2 -1.065438 0.000000 0.000000
2
Timestep 136
P1 1.099205 0.000000 0.000000
P2 -1.099205 0.000000 0.000000
2
Timestep 137
P1 1.129976 0.000000 0.000000
P2 -1.129976 0.000000 0.000000
2
Timestep 138
P1 1.157597 0.000000 0.000000
P2 -1.157597 0.000000 0.000000
2
Timestep 139
P1 1.181930 0.000000 0.000000
P2 -1.181930 0.000000 0.000000
2
Timestep 140
P1 1.202853 0.000000 0.000000
P2 -1.202853 0.000000 0.000000
2
Timestep 141
P1 1.220262 0.000000 0.000000
P2 -1.220262 0.000000 0.000000
2
Timestep 142
P1 1.234070 0.000000 0.000000
P2 -1.234070 0.000000 0.000000
2
Timestep 143
P1 1.244207 0.000000 0.000000
P2 -1.244207 0.000000 0.000000
2
Timestep 144
P1 1.250624 0.000000 0.000000
P2 -1.250624 0.000000 0.000000
2
Timestep 145
P1 1.253287 0.000000 0.000000
P2 -1.253287 0.000000 0.000000
2
Timestep 146
P1 1.252184 0.000000 0.000000
P2 -1.252184 0.000000 0.000000
2
Timestep 147
P1 1.247320 0.000000 0.000000
P2 -1.247320 0.000000 0.000000
2
Timestep 148
P1 1.238719 0.000000 0.000000
P2 -1.238719 0.000000 0.000000
2
Timestep 149
P1 1.226425 0.000000 0.000000
P2 -1.226425 0.000000 0.000000
2
Timestep 150
P1 1.210498 0.000000 0.000000
P2 -1.210498 0.000000 0.000000
2
Timestep 151
P1 1.191019 0.000000 0.000000
P2 -1.191019 0.000000 0.000000
2
Timestep 152
P1 1.168085 0.000000 0.000000
P2 -1.168085 0.000000 0.000000
2
Timestep 153
P1 1.141811 0.000000 0.000000
P2 -1.141811 0.000000 0.000000
2
Timestep 154
P1 1.112327 0.000000 0.000000
P2 -1.112327 0.000000 0.000000
2
Timestep 155
P1 1.079782 0.000000 0.000000
P2 -1.079782 0.000000 0.000000
2
Timestep 156
P1 1.044338 0.000000 0.000000
P2 -1.044338 0.000000 0.000000
2
Timestep 157
P1 1.006172 0.000000 0.000000
P2 -1.006172 0.000000 0.000000
2
Timestep 158
P1 0.965476 0.000000 0.000000
P2 -0.965476 0.000000 0.000000
2
Timestep 159
P1 0.922452 0.000000 0.000000
P2 -0.922452 0.000000 0.000000
2
Timestep 160
P1 0.877316 0.000000 0.000000
P2 -0.877316 0.000000 0.000000
2
Timestep 161
P1 0.830293 0.000000 0.000000
P2 -0.830293 0.000000 0.000000
2
Timestep 162
P1 0.781619 0.000000 0.000000
P2 -0.781619 0.000000 0.000000
2
Timestep 163
P1 0.731536 0.000000 0.000000
P2 -0.731536 0.000000 0.000000
2
Timestep 164
P1 0.680296 0.000000 0.000000
P2 -0.680296 0.000000 0.000000
2
Timestep 165
P1 0.628155 0.000000 0.000000
P2 -0.628155 0.000000 0.000000
2
Timestep 166
P1 0.575372 0.000000 0.000000
P2 -0.575372 0.000000 0.000000
2
Timestep 167
P1 0.522213 0.000000 0.000000
P2 -0.522213 0.000000 0.000000
2
Timestep 168
P1 0.468943 0.000000 0.000000
P2 -0.468943 0.000000 0.000000
2
Timestep 169
P1 0.415828 0.000000 0.000000
P2 -0.415828 0.000000 0.000000
2
Timestep 170
P1 0.363134 0.000000 0.000000
P2 -0.363134 0.000000 0.000000
2
Timestep 171
P1 0.311124 0.000000 0.000000
P2 -0.311124 0.000000 0.000000
2
Timestep 172
P1 0.260059 0.000000 0.000000
P2 -0.260059 0.000000 0.000000
2
Timestep 173
P1 0.210193 0.000000 0.000000
P2 -0.210193 0.000000 0.000000
2
Timestep 174
P1 0.161776 0.000000 0.000000
P2 -0.161776 0.000000 0.000000
2
Timestep 175
P1 0.115051 0.000000 0.000000
P2 -0.115051 0.000000 0.000000
2
Timestep 176
P1 0.070250 0.000000 0.000000
P2 -0.070250 0.000000 0.000000
2
Timestep 177
P1 0.027598 0.000000 0.000000
P2 -0.027598 0.000000 0.000000
2
Timestep 178
P1 -0.012692 0.000000 0.000000
P2 0.012692 0.000000 0.000000
2
Timestep 179
P1 -0.050418 0.000000 0.000000
P2 0.050418 0.000000 0.000000
2
Timestep 180
P1 -0.085393 0.000000 0.000000
P2 0.085393 0.000000 0.000000
2
Timestep 181
P1 -0.117440 0.000000 0.000000
P2 0.117440 0.000000 0.000000
2
Timestep 182
P1 -0.146401 0.000000 0.000000
P2 0.146401 0.000000 0.000000
2
Timestep 183
P1 -0.172129 0.000000 0.000000
P2 0.172129 0.000000 0.000000
2
Timestep 184
P1 -0.194497 0.000000 0.000000
P2 0.194497 0.000000 0.000000
2
Timestep 185
P1 -0.213392 0.000000 0.000000
P2 0.213392 0.000000 0.000000
2
Timestep 186
P1 -0.228720 0.000000 0.000000
P2 0.228720 0.000000 0.000000
2
Timestep 187
P1 -0.240405 0.000000 0.000000
P2 0.240405 0.000000 0.000000
2
Timestep 188
P1 -0.248387 0.000000 0.000000
P2 0.248387 0.000000 0.000000
2
Timestep 189
P1 -0.252628 0.000000 0.000000
P2 0.252628 0.000000 0.000000
2
Timestep 190
P1 -0.253105 0.000000 0.000000
P2 0.253105 0.000000 0.000000
2
Timestep 191
P1 -0.249817 0.000000 0.000000
P2 0.249817 0.000000 0.000000
2
Timestep 192
P1 -0.242780 0.000000 0.000000
P2 0.242780 0.000000 0.000000
2
Timestep 193
P1 -0.232029 0.000000 0.000000
P2 0.232029 0.000000 0.000000
2
Timestep 194
P1 -0.217618 0.000000 0.000000
P2 0.217618 0.000000 0.000000
2
Timestep 195
P1 -0.199619 0.000000 0.000000
P2 0.199619 0.000000 0.000000
2
Timestep 196
P1 -0.178121 0.000000 0.000000
P2 0.178121 0.000000 0.000000
2
Timestep 197
P1 -0.153233 0.000000 0.000000
P2 0.153233 0.000000 0.000000
2
Timestep 198
P1 -0.125079 0.000000 0.000000
P2 0.125079 0.000000 0.000000
2
Timestep 199
P1 -0.093800 0.000000 0.000000
P2 0.093800 0.000000 0.000000
2
Timestep 200
P1 -0.059551 0.000000 0.000000
P2 0.059551 0.000000 0.000000
2
Timestep 201
P1 -0.022505 0.000000 0.000000
P2 0.022505 0.000000 0.000000
2
Timestep 202
P1 0.017154 0.000000 0.000000
P2 -0.017154 0.000000 0.000000
2
Timestep 203
P1 0.059227 0.000000 0.000000
P2 -0.059227 0.000000 0.000000
2
Timestep 204
P1 0.103504 0.000000 0.000000
P2 -0.103504 0.000000 0.000000
2
Timestep 205
P1 0.149763 0.000000 0.000000
P2 -0.149763 0.000000 0.000000
2
Timestep 206
P1 0.197774 0.000000 0.000000
P2 -0.197774 0.000000 0.000000
2
Timestep 207
P1 0.247295 0.000000 0.000000
P2 -0.247295 0.000000 0.000000
2
Timestep 208
P1 0.298080 0.000000 0.000000
P2 -0.298080 0.000000 0.000000
2
Timestep 209
P1 0.349875 0.000000 0.000000
P2 -0.349875 0.000000 0.000000
2
Timestep 210
P1 0.402421 0.000000 0.000000
P2 -0.402421 0.000000 0.000000
2
Timestep 211
P1 0.455454 0.000000 0.000000
P2 -0.455454 0.000000 0.000000
2
Timestep 212
P1 0.508710 0.000000 0.000000
P2 -0.508710 0.000000 0.000000
2
Timestep 213
P1 0.561923 0.000000 0.000000
P2 -0.561923 0.000000 0.000000
2
Timestep 214
P1 0.614825 0.000000 0.000000
P2 -0.614825 0.000000 0.000000
2
Timestep 215
P1 0.667154 0.000000 0.000000
P2 -0.667154 0.000000 0.000000
2
Timestep 216
P1 0.718647 0.000000 0.000000
P2 -0.718647 0.000000 0.000000
2
Timestep 217
P1 0.769047 0.000000 0.000000
P2 -0.769047 0.000000 0.000000
2
Timestep 218
P1 0.818101 0.000000 0.000000
P2 -0.818101 0.000000 0.000000
2
Timestep 219
P1 0.865566 0.000000 0.000000
P2 -0.865566 0.000000 0.000000
2
Timestep 220
P1 0.911202 0.000000 0.000000
P2 -0.911202 0.000000 0.000000
2
Timestep 221
P1 0.954782 0.000000 0.000000
P2 -0.954782 0.000000 0.000000
2
Timestep 222
P1 0.996088 0.000000 0.000000
P2 -0.996088 0.000000 0.000000
2
Timestep 223
P1 1.034914 0.000000 0.000000
P2 -1.034914 0.000000 0.000000
2
Timestep 224
P1 1.071065 0.000000 0.000000
P2 -1.071065 0.000000 0.000000
2
Timestep 225
P1 1.104361 0.000000 0.000000
P2 -1.104361 0.000000 0.000000
2
Timestep 226
P1 1.134635 0.000000 0.000000
P2 -1.134635 0.000000 0.000000
2
Timestep 227
P1 1.161736 0.000000 0.000000
P2 -1.161736 0.000000 0.000000
2
Timestep 228
P1 1.185529 0.000000 0.000000
P2 -1.185529 0.000000 0.000000
2
Timestep 229
P1 1.205893 0.000000 0.000000
P2 -1.205893 0.000000 0.000000
2
Timestep 230
P1 1.222728 0.000000 0.000000
P2 -1.222728 0.000000 0.000000
2
Timestep 231
P1 1.235950 0.000000 0.000000
P2 -1.235950 0.000000 0.000000
2
Timestep 232
P1 1.245492 0.000000 0.000000
P2 -1.245492 0.000000 0.000000
2
Timestep 233
P1 1.251306 0.000000 0.000000
P2 -1.251306 0.000000 0.000000
2
Timestep 234
P1 1.253364 0.000000 0.000000
P2 -1.253364 0.000000 0.000000
2
Timestep 235
P1 1.251655 0.000000 0.000000
P2 -1.251655 0.000000 0.000000
2
Timestep 236
P1 1.246187 0.000000 0.000000
P2 -1.246187 0.000000 0.000000
2
Timestep 237
P1 1.236989 0.000000 0.000000
P2 -1.236989 0.000000 0.000000
2
Timestep 238
P1 1.224106 0.000000 0.000000
P2 -1.224106 0.000000 0.000000
2
Timestep 239
P1 1.207602 0.000000 0.000000
P2 -1.207602 0.000000 0.000000
2
Timestep 240
P1 1.187561 0.000000 0.000000
P2 -1.187561 0.000000 0.000000
2
Timestep 241
P1 1.164081 0.000000 0.000000
P2 -1.164081 0.000000 0.000000
2
Timestep 242
P1 1.137281 0.000000 0.000000
P2 -1.137281 0.000000 0.000000
2
Timestep 243
P1 1.107295 0.000000 0.000000
P2 -1.107295 0.000000 0.000000
2
Timestep 244
P1 1.074272 0.000000 0.000000
P2 -1.074272 0.000000 0.000000
2
Timestep 245
P1 1.038378 0.000000 0.000000
P2 -1.038378 0.000000 0.000000
2
Timestep 246
P1 0.999792 0.000000 0.000000
P2 -0.999792 0.000000 0.000000
2
Timestep 247
P1 0.958707 0.000000 0.000000
P2 -0.958707 0.000000 0.000000
2
Timestep 248
P1 0.915328 0.000000 0.000000
P2 -0.915328 0.000000 0.000000
2
Timestep 249
P1 0.869873 0.000000 0.000000
P2 -0.869873 0.000000 0.000000
2
Timestep 250
P1 0.822568 0.000000 0.000000
P2 -0.822568 0.000000 0.000000
2
Timestep 251
P1 0.773651 0.000000 0.000000
P2 -0.773651 0.000000 0.000000
2
Timestep 252
P1 0.723365 0.000000 0.000000
P2 -0.723365 0.000000 0.000000
2
Timestep 253
P1 0.671963 0.000000 0.000000
P2 -0.671963 0.000000 0.000000
2
Timestep 254
P1 0.619700 0.000000 0.000000
P2 -0.619700 0.000000 0.000000
2
Timestep 255
P1 0.566840 0.000000 0.000000
P2 -0.566840 0.000000 0.000000
2
Timestep 256
P1 0.513645 0.000000 0.000000
P2 -0.513645 0.000000 0.000000
2
Timestep 257
P1 0.460381 0.000000 0.000000
P2 -0.460381 0.000000 0.000000
2
Timestep 258
P1 0.407316 0.000000 0.000000
P2 -0.407316 0.000000 0.000000
2
Timestep 259
P1 0.354715 0.000000 0.000000
P2 -0.354715 0.000000 0.000000
2
Timestep 260
P1 0.302839 0.000000 0.000000
P2 -0.302839 0.000000 0.000000
2
Timestep 261
P1 0.251950 0.000000 0.000000
P2 -0.251950 0.000000 0.000000
2
Timestep 262
P1 0.202301 0.000000 0.000000
P2 -0.202301 0.000000 0.000000
2
Timestep 263
P1 0.154140 0.000000 0.000000
P2 -0.154140 0.000000 0.000000
2
Timestep 264
P1 0.107708 0.000000 0.000000
P2 -0.107708 0.000000 0.000000
2
Timestep 265
P1 0.063238 0.000000 0.000000
P2 -0.063238 0.000000 0.000000
2
Timestep 266
P1 0.020952 0.000000 0.000000
P2 -0.020952 0.000000 0.000000
2
Timestep 267
P1 -0.018939 0.000000 0.000000
P2 0.018939 0.000000 0.000000
2
Timestep 268
P1 -0.056235 0.000000 0.000000
P2 0.056235 0.000000 0.000000
2
Timestep 269
P1 -0.090750 0.000000 0.000000
P2 0.090750 0.000000 0.000000
2
Timestep 270
P1 -0.122311 0.000000 0.000000
P2 0.122311 0.000000 0.000000
2
Timestep 271
P1 -0.150761 0.000000 0.000000
P2 0.150761 0.000000 0.000000
2
Timestep 272
P1 -0.175957 0.000000 0.000000
P2 0.175957 0.000000 0.000000
2
Timestep 273
P1 -0.197773 0.000000 0.000000
P2 0.197773 0.000000 0.000000
2
Timestep 274
P1 -0.216100 0.000000 0.000000
P2 0.216100 0.000000 0.000000
2
Timestep 275
P1 -0.230847 0.000000 0.000000
P2 0.230847 0.000000 0.000000
2
Timestep 276
P1 -0.241940 0.000000 0.000000
P2 0.241940 0.000000 0.000000
2
Timestep 277
P1 -0.249323 0.000000 0.000000
P2 0.249323 0.000000 0.000000
2
Timestep 278
P1 -0.252959 0.000000 0.000000
P2 0.252959 0.000000 0.000000
2
Timestep 279
P1 -0.252830 0.000000 0.000000
P2 0.252830 0.000000 0.000000
2
Timestep 280
P1 -0.248938 0.000000 0.000000
P2 0.248938 0.000000 0.000000
2
Timestep 281
P1 -0.241300 0.000000 0.000000
P2 0.241300 0.000000 0.000000
2
Timestep 282
P1 -0.229956 0.000000 0.000000
P2 0.229956 0.000000 0.000000
2
Timestep 283
P1 -0.214963 0.000000 0.000000
P2 0.214963 0.000000 0.000000
2
Timestep 284
P1 -0.196394 0.000000 0.000000
P2 0.196394 0.000000 0.000000
2
Timestep 285
P1 -0.174344 0.000000 0.000000
P2 0.174344 0.000000 0.000000
2
Timestep 286
P1 -0.148922 0.000000 0.000000
P2 0.148922 0.000000 0.000000
2
Timestep 287
P1 -0.120255 0.000000 0.000000
P2 0.120255 0.000000 0.000000
2
Timestep 288
P1 -0.088487 0.000000 0.000000
P2 0.088487 0.000000 0.000000
2
Timestep 289
P1 -0.053776 0.000000 0.000000
P2 0.053776 0.000000 0.000000
2
Timestep 290
P1 -0.016297 0.000000 0.000000
P2 0.016297 0.000000 0.000000
2
Timestep 291
P1 0.023764 0.000000 0.000000
P2 -0.023764 0.000000 0.000000
2
Timestep 292
P1 0.066206 0.000000 0.000000
P2 -0.066206 0.000000 0.000000
2
Timestep 293
P1 0.110817 0.000000 0.000000
P2 -0.110817 0.000000 0.000000
2
Timestep 294
P1 0.157374 0.000000 0.000000
P2 -0.157374 0.000000 0.000000
2
Timestep 295
P1 0.205644 0.000000 0.000000
P2 -0.205644 0.000000 0.000000
2
Timestep 296
P1 0.255386 0.000000 0.000000
P2 -0.255386 0.000000 0.000000
2
Timestep 297
P1 0.306351 0.000000 0.000000
P2 -0.306351 0.000000 0.000000
2
Timestep 298
P1 0.358284 0.000000 0.000000
P2 -0.358284 0.000000 0.000000
2
Timestep 299
P1 0.410926 0.000000 0.000000
P2 -0.410926 0.000000 0.000000
2
Timestep 300
P1 0.464013 0.000000 0.000000
P2 -0.464013 0.000000 0.000000
2
Timestep 301
P1 0.517280 0.000000 0.000000
P2 -0.517280 0.000000 0.000000
2
Timestep 302
P1 0.570460 0.000000 0.000000
P2 -0.570460 0.000000 0.000000
2
Timestep 303
P1 0.623289 0.000000 0.000000
P2 -0.623289 0.000000 0.000000
2
Timestep 304
P1 0.675501 0.000000 0.000000
P2 -0.675501 0.000000 0.000000
2
Timestep 305
P1 0.726835 0.000000 0.000000
P2 -0.726835 0.000000 0.000000
2
Timestep 306
P1 0.777035 0.000000 0.000000
P2 -0.777035 0.000000 0.000000
2
Timestep 307
P1 0.825850 0.000000 0.000000
P2 -0.825850 0.000000 0.000000
2
Timestep 308
P1 0.873036 0.000000 0.000000
P2 -0.873036 0.000000 0.000000
2
Timestep 309
P1 0.918357 0.000000 0.000000
P2 -0.918357 0.000000 0.000000
2
Timestep 310
P1 0.961585 0.000000 0.000000
P2 -0.961585 0.000000 0.000000
2
Timestep 311
P1 1.002506 0.000000 0.000000
P2 -1.002506 0.000000 0.000000
2
Timestep 312
P1 1.040915 0.000000 0.000000
P2 -1.040915 0.000000 0.000000
2
Timestep 313
P1 1.076618 0.000000 0.000000
P2 -1.076618 0.000000 0.000000
2
Timestep 314
P1 1.109439 0.000000 0.000000
P2 -1.109439 0.000000 0.000000
2
Timestep 315
P1 1.139213 0.000000 0.000000
P2 -1.139213 0.000000 0.000000
2
Timestep 316
P1 1.165790 0.000000 0.000000
P2 -1.165790 0.000000 0.000000
2
Timestep 317
P1 1.189039 0.000000 0.000000
P2 -1.189039 0.000000 0.000000
2
Timestep 318
P1 1.208842 0.000000 0.000000
P2 -1.208842 0.000000 0.000000
2
Timestep 319
P1 1.225101 0.000000 0.000000
P2 -1.225101 0.000000 0.000000
2
Timestep 320
P1 1.237735 0.000000 0.000000
P2 -1.237735 0.000000 0.000000
2
Timestep 321
P1 1.246679 0.000000 0.000000
P2 -1.246679 0.000000 0.000000
2
Timestep 322
P1 1.251891 0.000000 0.000000
P2 -1.251891 0.000000 0.000000
2
Timestep 323
P1 1.253343 0.000000 0.000000
P2 -1.253343 0.000000 0.000000
2
Timestep 324
P1 1.251028 0.000000 0.000000
P2 -1.251028 0.000000 0.000000
2
Timestep 325
P1 1.244959 0.000000 0.000000
P2 -1.244959 0.000000 0.000000
2
Timestep 326
P1 1.235164 0.000000 0.000000
P2 -1.235164 0.000000 0.000000
2
Timestep 327
P1 1.221694 0.000000 0.000000
P2 -1.221694 0.000000 0.000000
2
Timestep 328
P1 1.204615 0.000000 0.000000
P2 -1.204615 0.000000 0.000000
2
Timestep 329
P1 1.184013 0.000000 0.000000
P2 -1.184013 0.000000 0.000000
2
Timestep 330
P1 1.159991 0.000000 0.000000
P2 -1.159991 0.000000 0.000000
2
Timestep 331
P1 1.132669 0.000000 0.000000
P2 -1.132669 0.000000 0.000000
2
Timestep 332
P1 1.102183 0.000000 0.000000
P2 -1.102183 0.000000 0.000000
2
Timestep 333
P1 1.068687 0.000000 0.000000
P2 -1.068687 0.000000 0.000000
2
Timestep 334
P1 1.032348 0.000000 0.000000
P2 -1.032348 0.000000 0.000000
2
Timestep 335
P1 0.993346 0.000000 0.000000
P2 -0.993346 0.000000 0.000000
2
Timestep 336
P1 0.951878 0.000000 0.000000
P2 -0.951878 0.000000 0.000000
2
Timestep 337
P1 0.908150 0.000000 0.000000
P2 -0.908150 0.000000 0.000000
2
Timestep 338
P1 0.862382 0.000000 0.000000
P2 -0.862382 0.000000 0.000000
2
Timestep 339
P1 0.814802 0.000000 0.000000
P2 -0.814802 0.000000 0.000000
2
Timestep 340
P1 0.765648 0.000000 0.000000
P2 -0.765648 0.000000 0.000000
2
Timestep 341
P1 0.715165 0.000000 0.000000
P2 -0.715165 0.000000 0.000000
2
Timestep 342
P1 0.663607 0.000000 0.000000
P2 -0.663607 0.000000 0.000000
2
Timestep 343
P1 0.611231 0.000000 0.000000
P2 -0.611231 0.000000 0.000000
2
Timestep 344
P1 0.558298 0.000000 0.000000
P2 -0.558298 0.000000 0.000000
2
Timestep 345
P1 0.505074 0.000000 0.000000
P2 -0.505074 0.000000 0.000000
2
Timestep 346
P1 0.451825 0.000000 0.000000
P2 -0.451825 0.000000 0.000000
2
Timestep 347
P1 0.398817 0.000000 0.000000
P2 -0.398817 0.000000 0.000000
2
Timestep 348
P1 0.346314 0.000000 0.000000
P2 -0.346314 0.000000 0.000000
2
Timestep 349
P1 0.294580 0.000000 0.000000
P2 -0.294580 0.000000 0.000000
2
Timestep 350
P1 0.243873 0.000000 0.000000
P2 -0.243873 0.000000 0.000000
2
Timestep 351
P1 0.194447 0.000000 0.000000
P2 -0.194447 0.000000 0.000000
2
Timestep 352
P1 0.146548 0.000000 0.000000
P2 -0.146548 0.000000 0.000000
2
Timestep 353
P1 0.100417 0.000000 0.000000
P2 -0.100417 0.000000 0.000000
2
Timestep 354
P1 0.056283 0.000000 0.000000
P2 -0.056283 0.000000 0.000000
2
Timestep 355
P1 0.014368 0.000000 0.000000
P2 -0.014368 0.000000 0.000000
2
Timestep 356
P1 -0.025118 0.000000 0.000000
P2 0.025118 0.000000 0.000000
2
Timestep 357
P1 -0.061979 0.000000 0.000000
P2 0.061979 0.000000 0.000000
2
Timestep 358
P1 -0.096031 0.000000 0.000000
P2 0.096031 0.000000 0.000000
2
Timestep 359
P1 -0.127102 0.000000 0.000000
P2 0.127102 0.000000 0.000000
2
Timestep 360
P1 -0.155037 0.000000 0.000000
P2 0.155037 0.000000 0.000000
2
Timestep 361
P1 -0.179697 0.000000 0.000000
P2 0.179697 0.000000 0.000000
2
Timestep 362
P1 -0.200959 0.000000 0.000000
P2 0.200959 0.000000 0.000000
2
Timestep 363
P1 -0.218716 0.000000 0.000000
P2 0.218716 0.000000 0.000000
2
Timestep 364
P1 -0.232880 0.000000 0.000000
P2 0.232880 0.000000 0.000000
2
Timestep 365
P1 -0.243379 0.000000 0.000000
P2 0.243379 0.000000 0.000000
2
Timestep 366
P1 -0.250161 0.000000 0.000000
P2 0.250161 0.000000 0.000000
2
Timestep 367
P1 -0.253192 0.000000 0.000000
P2 0.253192 0.000000 0.000000
2
Timestep 368
P1 -0.252458 0.000000 0.000000
P2 0.252458 0.000000 0.000000
2
Timestep 369
P1 -0.247961 0.000000 0.000000
P2 0.247961 0.000000 0.000000
2
Timestep 370
P1 -0.239724 0.000000 0.000000
P2 0.239724 0.000000 0.000000
2
Timestep 371
P1 -0.227789 0.000000 0.000000
P2 0.227789 0.000000 0.000000
2
Timestep 372
P1 -0.212215 0.000000 0.000000
P2 0.212215 0.000000 0.000000
2
Timestep 373
P1 -0.193079 0.000000 0.000000
P2 0.193079 0.000000 0.000000
2
Timestep 374
P1 -0.170479 0.000000 0.000000
P2 0.170479 0.000000 0.000000
2
Timestep 375
P1 -0.144526 0.000000 0.000000
P2 0.144526 0.000000 0.000000
2
Timestep 376
P1 -0.115350 0.000000 0.000000
P2 0.115350 0.000000 0.000000
2
Timestep 377
P1 -0.083097 0.000000 0.000000
P2 0.083097 0.000000 0.000000
2
Timestep 378
P1 -0.047929 0.000000 0.000000
P2 0.047929 0.000000 0.000000
2
Timestep 379
P1 -0.010022 0.000000 0.000000
P2 0.010022 0.000000 0.000000
2
Timestep 380
P1 0.030436 0.000000 0.000000
P2 -0.030436 0.000000 0.000000
2
Timestep 381
P1 0.073241 0.000000 0.000000
P2 -0.073241 0.000000 0.000000
2
Timestep 382
P1 0.118181 0.000000 0.000000
P2 -0.118181 0.000000 0.000000
2
Timestep 383
P1 0.165029 0.000000 0.000000
P2 -0.165029 0.000000 0.000000
2
Timestep 384
P1 0.213553 0.000000 0.000000
P2 -0.213553 0.000000 0.000000
2
Timestep 385
P1 0.263508 0.000000 0.000000
P2 -0.263508 0.000000 0.000000
2
Timestep 386
P1 0.314646 0.000000 0.000000
P2 -0.314646 0.000000 0.000000
2
Timestep 387
P1 0.366711 0.000000 0.000000
P2 -0.366711 0.000000 0.000000
2
Timestep 388
P1 0.419442 0.000000 0.000000
P2 -0.419442 0.000000 0.000000
2
Timestep 389
P1 0.472576 0.000000 0.000000
P2 -0.472576 0.000000 0.000000
2
Timestep 390
P1 0.525847 0.000000 0.000000
P2 -0.525847 0.000000 0.000000
2
Timestep 391
P1 0.578989 0.000000 0.000000
P2 -0.578989 0.000000 0.000000
2
Timestep 392
P1 0.631736 0.000000 0.000000
P2 -0.631736 0.000000 0.000000
2
Timestep 393
P1 0.683824 0.000000 0.000000
P2 -0.683824 0.000000 0.000000
2
Timestep 394
P1 0.734993 0.000000 0.000000
P2 -0.734993 0.000000 0.000000
2
Timestep 395
P1 0.784987 0.000000 0.000000
P2 -0.784987 0.000000 0.000000
2
Timestep 396